title="Potential"
variables = "x","y","U(V)"
zone i=81,j=81
0 0 0
0.01 0 0
0.02 0 0
0.03 0 0
0.04 0 0
0.05 0 0
0.06 0 0
0.07 0 0
0.08 0 0
0.09 0 0
0.1 0 0
0.11 0 0
0.12 0 0
0.13 0 0
0.14 0 0
0.15 0 0
0.16 0 0
0.17 0 0
0.18 0 0
0.19 0 0
0.2 0 0
0.21 0 0
0.22 0 0
0.23 0 0
0.24 0 0
0.25 0 0
0.26 0 0
0.27 0 0
0.28 0 0
0.29 0 0
0.3 0 0
0.31 0 0
0.32 0 0
0.33 0 0
0.34 0 0
0.35 0 0
0.36 0 0
0.37 0 0
0.38 0 0
0.39 0 0
0.4 0 0
0.41 0 0
0.42 0 0
0.43 0 0
0.44 0 0
0.45 0 0
0.46 0 0
0.47 0 0
0.48 0 0
0.49 0 0
0.5 0 0
0.51 0 0
0.52 0 0
0.53 0 0
0.54 0 0
0.55 0 0
0.56 0 0
0.57 0 0
0.58 0 0
0.59 0 0
0.6 0 0
0.61 0 0
0.62 0 0
0.63 0 0
0.64 0 0
0.65 0 0
0.66 0 0
0.67 0 0
0.68 0 0
0.69 0 0
0.7 0 0
0.71 0 0
0.72 0 0
0.73 0 0
0.74 0 0
0.75 0 0
0.76 0 0
0.77 0 0
0.78 0 0
0.79 0 0
0.8 0 0
0 0.01 2.01851
0.01 0.01 2.01757
0.02 0.01 2.01475
0.03 0.01 2.01006
0.04 0.01 2.0035
0.05 0.01 1.9951
0.06 0.01 1.98486
0.07 0.01 1.97281
0.08 0.01 1.95898
0.09 0.01 1.94338
0.1 0.01 1.92607
0.11 0.01 1.90708
0.12 0.01 1.88645
0.13 0.01 1.86423
0.14 0.01 1.84049
0.15 0.01 1.81528
0.16 0.01 1.78868
0.17 0.01 1.76075
0.18 0.01 1.73157
0.19 0.01 1.70123
0.2 0.01 1.6698
0.21 0.01 1.63739
0.22 0.01 1.60407
0.23 0.01 1.56995
0.24 0.01 1.53513
0.25 0.01 1.49969
0.26 0.01 1.46374
0.27 0.01 1.42736
0.28 0.01 1.39067
0.29 0.01 1.35374
0.3 0.01 1.31666
0.31 0.01 1.27952
0.32 0.01 1.24241
0.33 0.01 1.2054
0.34 0.01 1.16855
0.35 0.01 1.13194
0.36 0.01 1.09563
0.37 0.01 1.05968
0.38 0.01 1.02413
0.39 0.01 0.989033
0.4 0.01 0.954425
0.41 0.01 0.920341
0.42 0.01 0.886812
0.43 0.01 0.853861
0.44 0.01 0.821508
0.45 0.01 0.78977
0.46 0.01 0.758656
0.47 0.01 0.728175
0.48 0.01 0.698331
0.49 0.01 0.669124
0.5 0.01 0.640552
0.51 0.01 0.612609
0.52 0.01 0.585289
0.53 0.01 0.55858
0.54 0.01 0.532472
0.55 0.01 0.50695
0.56 0.01 0.481999
0.57 0.01 0.457602
0.58 0.01 0.433741
0.59 0.01 0.410398
0.6 0.01 0.387552
0.61 0.01 0.365183
0.62 0.01 0.343268
0.63 0.01 0.321787
0.64 0.01 0.300716
0.65 0.01 0.280032
0.66 0.01 0.259712
0.67 0.01 0.239733
0.68 0.01 0.22007
0.69 0.01 0.2007
0.7 0.01 0.181599
0.71 0.01 0.162742
0.72 0.01 0.144105
0.73 0.01 0.125664
0.74 0.01 0.107394
0.75 0.01 0.0892705
0.76 0.01 0.0712695
0.77 0.01 0.0533665
0.78 0.01 0.0355369
0.79 0.01 0.0177562
0.8 0.01 0
0 0.02 4.03889
0.01 0.02 4.03701
0.02 0.02 4.03137
0.03 0.02 4.02198
0.04 0.02 4.00886
0.05 0.02 3.99203
0.06 0.02 3.97154
0.07 0.02 3.94741
0.08 0.02 3.91971
0.09 0.02 3.88849
0.1 0.02 3.85382
0.11 0.02 3.81579
0.12 0.02 3.77448
0.13 0.02 3.72999
0.14 0.02 3.68245
0.15 0.02 3.63197
0.16 0.02 3.57869
0.17 0.02 3.52275
0.18 0.02 3.46431
0.19 0.02 3.40353
0.2 0.02 3.3406
0.21 0.02 3.27567
0.22 0.02 3.20895
0.23 0.02 3.14062
0.24 0.02 3.07087
0.25 0.02 2.99989
0.26 0.02 2.92789
0.27 0.02 2.85505
0.28 0.02 2.78157
0.29 0.02 2.70762
0.3 0.02 2.63338
0.31 0.02 2.55903
0.32 0.02 2.48472
0.33 0.02 2.41062
0.34 0.02 2.33686
0.35 0.02 2.26359
0.36 0.02 2.19091
0.37 0.02 2.11895
0.38 0.02 2.04781
0.39 0.02 1.97758
0.4 0.02 1.90832
0.41 0.02 1.84013
0.42 0.02 1.77304
0.43 0.02 1.70712
0.44 0.02 1.6424
0.45 0.02 1.57891
0.46 0.02 1.51668
0.47 0.02 1.45571
0.48 0.02 1.39603
0.49 0.02 1.33761
0.5 0.02 1.28047
0.51 0.02 1.2246
0.52 0.02 1.16997
0.53 0.02 1.11656
0.54 0.02 1.06436
0.55 0.02 1.01333
0.56 0.02 0.963443
0.57 0.02 0.914667
0.58 0.02 0.866965
0.59 0.02 0.820299
0.6 0.02 0.774628
0.61 0.02 0.729911
0.62 0.02 0.686104
0.63 0.02 0.643163
0.64 0.02 0.601044
0.65 0.02 0.5597
0.66 0.02 0.519084
0.67 0.02 0.479149
0.68 0.02 0.439848
0.69 0.02 0.401132
0.7 0.02 0.362954
0.71 0.02 0.325264
0.72 0.02 0.288015
0.73 0.02 0.251156
0.74 0.02 0.214641
0.75 0.02 0.178419
0.76 0.02 0.142441
0.77 0.02 0.10666
0.78 0.02 0.0710248
0.79 0.02 0.0354879
0.8 0.02 0
0 0.03 6.06304
0.01 0.03 6.06022
0.02 0.03 6.05174
0.03 0.03 6.03763
0.04 0.03 6.01792
0.05 0.03 5.99264
0.06 0.03 5.96184
0.07 0.03 5.92559
0.08 0.03 5.88396
0.09 0.03 5.83704
0.1 0.03 5.78494
0.11 0.03 5.72777
0.12 0.03 5.66568
0.13 0.03 5.59881
0.14 0.03 5.52734
0.15 0.03 5.45145
0.16 0.03 5.37135
0.17 0.03 5.28725
0.18 0.03 5.19938
0.19 0.03 5.10801
0.2 0.03 5.01337
0.21 0.03 4.91576
0.22 0.03 4.81543
0.23 0.03 4.7127
0.24 0.03 4.60783
0.25 0.03 4.50113
0.26 0.03 4.39289
0.27 0.03 4.28339
0.28 0.03 4.17293
0.29 0.03 4.06178
0.3 0.03 3.95021
0.31 0.03 3.83848
0.32 0.03 3.72683
0.33 0.03 3.6155
0.34 0.03 3.5047
0.35 0.03 3.39463
0.36 0.03 3.28548
0.37 0.03 3.17741
0.38 0.03 3.07059
0.39 0.03 2.96513
0.4 0.03 2.86117
0.41 0.03 2.7588
0.42 0.03 2.65812
0.43 0.03 2.55918
0.44 0.03 2.46207
0.45 0.03 2.3668
0.46 0.03 2.27343
0.47 0.03 2.18198
0.48 0.03 2.09244
0.49 0.03 2.00483
0.5 0.03 1.91914
0.51 0.03 1.83534
0.52 0.03 1.75342
0.53 0.03 1.67334
0.54 0.03 1.59507
0.55 0.03 1.51856
0.56 0.03 1.44378
0.57 0.03 1.37066
0.58 0.03 1.29915
0.59 0.03 1.2292
0.6 0.03 1.16075
0.61 0.03 1.09373
0.62 0.03 1.02807
0.63 0.03 0.963719
0.64 0.03 0.900597
0.65 0.03 0.838639
0.66 0.03 0.777774
0.67 0.03 0.717932
0.68 0.03 0.65904
0.69 0.03 0.601027
0.7 0.03 0.54382
0.71 0.03 0.487346
0.72 0.03 0.431533
0.73 0.03 0.376307
0.74 0.03 0.321594
0.75 0.03 0.267322
0.76 0.03 0.213417
0.77 0.03 0.159806
0.78 0.03 0.106415
0.79 0.03 0.0531707
0.8 0.03 0
0 0.04 8.09285
0.01 0.04 8.08907
0.02 0.04 8.07774
0.03 0.04 8.05889
0.04 0.04 8.03255
0.05 0.04 7.99876
0.06 0.04 7.9576
0.07 0.04 7.90914
0.08 0.04 7.8535
0.09 0.04 7.79078
0.1 0.04 7.72112
0.11 0.04 7.64468
0.12 0.04 7.56166
0.13 0.04 7.47224
0.14 0.04 7.37665
0.15 0.04 7.27515
0.16 0.04 7.16801
0.17 0.04 7.05551
0.18 0.04 6.93797
0.19 0.04 6.81573
0.2 0.04 6.68914
0.21 0.04 6.55855
0.22 0.04 6.42434
0.23 0.04 6.2869
0.24 0.04 6.14663
0.25 0.04 6.0039
0.26 0.04 5.85913
0.27 0.04 5.7127
0.28 0.04 5.56499
0.29 0.04 5.41637
0.3 0.04 5.26721
0.31 0.04 5.11785
0.32 0.04 4.96863
0.33 0.04 4.81985
0.34 0.04 4.6718
0.35 0.04 4.52475
0.36 0.04 4.37896
0.37 0.04 4.23463
0.38 0.04 4.09199
0.39 0.04 3.9512
0.4 0.04 3.81242
0.41 0.04 3.67579
0.42 0.04 3.54143
0.43 0.04 3.40943
0.44 0.04 3.27987
0.45 0.04 3.1528
0.46 0.04 3.02828
0.47 0.04 2.90632
0.48 0.04 2.78693
0.49 0.04 2.67013
0.5 0.04 2.5559
0.51 0.04 2.4442
0.52 0.04 2.33502
0.53 0.04 2.22831
0.54 0.04 2.12401
0.55 0.04 2.02208
0.56 0.04 1.92244
0.57 0.04 1.82504
0.58 0.04 1.72979
0.59 0.04 1.63661
0.6 0.04 1.54544
0.61 0.04 1.45618
0.62 0.04 1.36874
0.63 0.04 1.28304
0.64 0.04 1.19899
0.65 0.04 1.11649
0.66 0.04 1.03544
0.67 0.04 0.955764
0.68 0.04 0.877354
0.69 0.04 0.800116
0.7 0.04 0.723953
0.71 0.04 0.648768
0.72 0.04 0.574464
0.73 0.04 0.500943
0.74 0.04 0.428107
0.75 0.04 0.355858
0.76 0.04 0.284099
0.77 0.04 0.212732
0.78 0.04 0.141658
0.79 0.04 0.0707801
0.8 0.04 0
0 0.05 10.1302
0.01 0.05 10.1255
0.02 0.05 10.1113
0.03 0.05 10.0876
0.04 0.05 10.0546
0.05 0.05 10.0123
0.06 0.05 9.96065
0.07 0.05 9.89989
0.08 0.05 9.83011
0.09 0.05 9.75145
0.1 0.05 9.66407
0.11 0.05 9.56819
0.12 0.05 9.46402
0.13 0.05 9.35183
0.14 0.05 9.23188
0.15 0.05 9.1045
0.16 0.05 8.97002
0.17 0.05 8.82881
0.18 0.05 8.68127
0.19 0.05 8.52782
0.2 0.05 8.36889
0.21 0.05 8.20495
0.22 0.05 8.03647
0.23 0.05 7.86395
0.24 0.05 7.68787
0.25 0.05 7.50873
0.26 0.05 7.32704
0.27 0.05 7.14328
0.28 0.05 6.95794
0.29 0.05 6.7715
0.3 0.05 6.5844
0.31 0.05 6.39709
0.32 0.05 6.20998
0.33 0.05 6.02346
0.34 0.05 5.8379
0.35 0.05 5.65363
0.36 0.05 5.47096
0.37 0.05 5.29018
0.38 0.05 5.11153
0.39 0.05 4.93525
0.4 0.05 4.76152
0.41 0.05 4.59052
0.42 0.05 4.42239
0.43 0.05 4.25724
0.44 0.05 4.09518
0.45 0.05 3.93626
0.46 0.05 3.78055
0.47 0.05 3.62808
0.48 0.05 3.47885
0.49 0.05 3.33287
0.5 0.05 3.19012
0.51 0.05 3.05056
0.52 0.05 2.91416
0.53 0.05 2.78086
0.54 0.05 2.6506
0.55 0.05 2.5233
0.56 0.05 2.39888
0.57 0.05 2.27726
0.58 0.05 2.15834
0.59 0.05 2.04203
0.6 0.05 1.92822
0.61 0.05 1.8168
0.62 0.05 1.70767
0.63 0.05 1.60072
0.64 0.05 1.49582
0.65 0.05 1.39287
0.66 0.05 1.29175
0.67 0.05 1.19233
0.68 0.05 1.0945
0.69 0.05 0.998129
0.7 0.05 0.903107
0.71 0.05 0.809309
0.72 0.05 0.716612
0.73 0.05 0.624894
0.74 0.05 0.534032
0.75 0.05 0.443905
0.76 0.05 0.35439
0.77 0.05 0.265364
0.78 0.05 0.176705
0.79 0.05 0.0882915
0.8 0.05 0
0 0.06 12.177
0.01 0.06 12.1713
0.02 0.06 12.1542
0.03 0.06 12.1258
0.04 0.06 12.086
0.05 0.06 12.035
0.06 0.06 11.9729
0.07 0.06 11.8997
0.08 0.06 11.8156
0.09 0.06 11.7208
0.1 0.06 11.6155
0.11 0.06 11.5
0.12 0.06 11.3744
0.13 0.06 11.2392
0.14 0.06 11.0945
0.15 0.06 10.9409
0.16 0.06 10.7788
0.17 0.06 10.6084
0.18 0.06 10.4305
0.19 0.06 10.2454
0.2 0.06 10.0537
0.21 0.06 9.85589
0.22 0.06 9.65266
0.23 0.06 9.44455
0.24 0.06 9.23216
0.25 0.06 9.01612
0.26 0.06 8.79701
0.27 0.06 8.57544
0.28 0.06 8.35201
0.29 0.06 8.12728
0.3 0.06 7.90181
0.31 0.06 7.67613
0.32 0.06 7.45074
0.33 0.06 7.22612
0.34 0.06 7.0027
0.35 0.06 6.7809
0.36 0.06 6.56108
0.37 0.06 6.34359
0.38 0.06 6.12872
0.39 0.06 5.91675
0.4 0.06 5.7079
0.41 0.06 5.50238
0.42 0.06 5.30036
0.43 0.06 5.10197
0.44 0.06 4.90733
0.45 0.06 4.71652
0.46 0.06 4.52959
0.47 0.06 4.34659
0.48 0.06 4.16752
0.49 0.06 3.99237
0.5 0.06 3.82114
0.51 0.06 3.65376
0.52 0.06 3.4902
0.53 0.06 3.33038
0.54 0.06 3.17422
0.55 0.06 3.02163
0.56 0.06 2.87252
0.57 0.06 2.72678
0.58 0.06 2.58429
0.59 0.06 2.44494
0.6 0.06 2.3086
0.61 0.06 2.17514
0.62 0.06 2.04443
0.63 0.06 1.91634
0.64 0.06 1.79072
0.65 0.06 1.66743
0.66 0.06 1.54634
0.67 0.06 1.4273
0.68 0.06 1.31017
0.69 0.06 1.1948
0.7 0.06 1.08104
0.71 0.06 0.968749
0.72 0.06 0.857781
0.73 0.06 0.747988
0.74 0.06 0.639223
0.75 0.06 0.53134
0.76 0.06 0.424191
0.77 0.06 0.317629
0.78 0.06 0.211508
0.79 0.06 0.105681
0.8 0.06 0
0 0.07 14.2353
0.01 0.07 14.2286
0.02 0.07 14.2086
0.03 0.07 14.1752
0.04 0.07 14.1287
0.05 0.07 14.0689
0.06 0.07 13.9961
0.07 0.07 13.9103
0.08 0.07 13.8118
0.09 0.07 13.7007
0.1 0.07 13.5773
0.11 0.07 13.4418
0.12 0.07 13.2945
0.13 0.07 13.1359
0.14 0.07 12.9662
0.15 0.07 12.786
0.16 0.07 12.5956
0.17 0.07 12.3957
0.18 0.07 12.1868
0.19 0.07 11.9695
0.2 0.07 11.7445
0.21 0.07 11.5123
0.22 0.07 11.2737
0.23 0.07 11.0294
0.24 0.07 10.7801
0.25 0.07 10.5266
0.26 0.07 10.2694
0.27 0.07 10.0095
0.28 0.07 9.74737
0.29 0.07 9.4838
0.3 0.07 9.21943
0.31 0.07 8.95488
0.32 0.07 8.69074
0.33 0.07 8.42757
0.34 0.07 8.16589
0.35 0.07 7.90618
0.36 0.07 7.64888
0.37 0.07 7.39437
0.38 0.07 7.14301
0.39 0.07 6.89511
0.4 0.07 6.65095
0.41 0.07 6.41074
0.42 0.07 6.17469
0.43 0.07 5.94296
0.44 0.07 5.71566
0.45 0.07 5.49289
0.46 0.07 5.27471
0.47 0.07 5.06116
0.48 0.07 4.85226
0.49 0.07 4.64798
0.5 0.07 4.44829
0.51 0.07 4.25315
0.52 0.07 4.06249
0.53 0.07 3.87623
0.54 0.07 3.69427
0.55 0.07 3.51649
0.56 0.07 3.34279
0.57 0.07 3.17304
0.58 0.07 3.00711
0.59 0.07 2.84484
0.6 0.07 2.6861
0.61 0.07 2.53073
0.62 0.07 2.37857
0.63 0.07 2.22948
0.64 0.07 2.08327
0.65 0.07 1.9398
0.66 0.07 1.79889
0.67 0.07 1.66038
0.68 0.07 1.52409
0.69 0.07 1.38985
0.7 0.07 1.2575
0.71 0.07 1.12687
0.72 0.07 0.997775
0.73 0.07 0.870054
0.74 0.07 0.743533
0.75 0.07 0.618041
0.76 0.07 0.493405
0.77 0.07 0.369454
0.78 0.07 0.246017
0.79 0.07 0.122923
0.8 0.07 0
0 0.08 16.3068
0.01 0.08 16.2992
0.02 0.08 16.2762
0.03 0.08 16.2379
0.04 0.08 16.1845
0.05 0.08 16.1159
0.06 0.08 16.0322
0.07 0.08 15.9338
0.08 0.08 15.8206
0.09 0.08 15.6929
0.1 0.08 15.5511
0.11 0.08 15.3953
0.12 0.08 15.226
0.13 0.08 15.0436
0.14 0.08 14.8484
0.15 0.08 14.6411
0.16 0.08 14.4221
0.17 0.08 14.192
0.18 0.08 13.9516
0.19 0.08 13.7015
0.2 0.08 13.4424
0.21 0.08 13.1751
0.22 0.08 12.9005
0.23 0.08 12.6193
0.24 0.08 12.3324
0.25 0.08 12.0406
0.26 0.08 11.7447
0.27 0.08 11.4456
0.28 0.08 11.1442
0.29 0.08 10.8411
0.3 0.08 10.5372
0.31 0.08 10.2332
0.32 0.08 9.92976
0.33 0.08 9.62753
0.34 0.08 9.32712
0.35 0.08 9.02906
0.36 0.08 8.73387
0.37 0.08 8.442
0.38 0.08 8.15384
0.39 0.08 7.86975
0.4 0.08 7.59003
0.41 0.08 7.31495
0.42 0.08 7.04472
0.43 0.08 6.77951
0.44 0.08 6.51946
0.45 0.08 6.26467
0.46 0.08 6.0152
0.47 0.08 5.7711
0.48 0.08 5.53237
0.49 0.08 5.29898
0.5 0.08 5.0709
0.51 0.08 4.84807
0.52 0.08 4.63039
0.53 0.08 4.41778
0.54 0.08 4.21012
0.55 0.08 4.00728
0.56 0.08 3.80912
0.57 0.08 3.6155
0.58 0.08 3.42625
0.59 0.08 3.24122
0.6 0.08 3.06022
0.61 0.08 2.8831
0.62 0.08 2.70966
0.63 0.08 2.53972
0.64 0.08 2.3731
0.65 0.08 2.20961
0.66 0.08 2.04904
0.67 0.08 1.89122
0.68 0.08 1.73594
0.69 0.08 1.58302
0.7 0.08 1.43225
0.71 0.08 1.28344
0.72 0.08 1.1364
0.73 0.08 0.990921
0.74 0.08 0.846815
0.75 0.08 0.703884
0.76 0.08 0.561933
0.77 0.08 0.420765
0.78 0.08 0.280184
0.79 0.08 0.139994
0.8 0.08 0
0 0.09 18.3938
0.01 0.09 18.3851
0.02 0.09 18.3591
0.03 0.09 18.3159
0.04 0.09 18.2554
0.05 0.09 18.1778
0.06 0.09 18.0833
0.07 0.09 17.9719
0.08 0.09 17.8438
0.09 0.09 17.6994
0.1 0.09 17.5388
0.11 0.09 17.3624
0.12 0.09 17.1707
0.13 0.09 16.964
0.14 0.09 16.7428
0.15 0.09 16.5078
0.16 0.09 16.2595
0.17 0.09 15.9987
0.18 0.09 15.726
0.19 0.09 15.4424
0.2 0.09 15.1485
0.21 0.09 14.8453
0.22 0.09 14.5338
0.23 0.09 14.2149
0.24 0.09 13.8895
0.25 0.09 13.5586
0.26 0.09 13.2232
0.27 0.09 12.8842
0.28 0.09 12.5426
0.29 0.09 12.1993
0.3 0.09 11.8551
0.31 0.09 11.511
0.32 0.09 11.1676
0.33 0.09 10.8257
0.34 0.09 10.486
0.35 0.09 10.1491
0.36 0.09 9.81556
0.37 0.09 9.48591
0.38 0.09 9.1606
0.39 0.09 8.84001
0.4 0.09 8.52449
0.41 0.09 8.21431
0.42 0.09 7.90971
0.43 0.09 7.61089
0.44 0.09 7.31799
0.45 0.09 7.03112
0.46 0.09 6.75033
0.47 0.09 6.47567
0.48 0.09 6.20713
0.49 0.09 5.94468
0.5 0.09 5.68827
0.51 0.09 5.43782
0.52 0.09 5.19323
0.53 0.09 4.95439
0.54 0.09 4.72115
0.55 0.09 4.49338
0.56 0.09 4.27091
0.57 0.09 4.05357
0.58 0.09 3.84118
0.59 0.09 3.63355
0.6 0.09 3.43048
0.61 0.09 3.23179
0.62 0.09 3.03725
0.63 0.09 2.84666
0.64 0.09 2.65981
0.65 0.09 2.47648
0.66 0.09 2.29645
0.67 0.09 2.11952
0.68 0.09 1.94545
0.69 0.09 1.77403
0.7 0.09 1.60504
0.71 0.09 1.43825
0.72 0.09 1.27345
0.73 0.09 1.11042
0.74 0.09 0.948921
0.75 0.09 0.788749
0.76 0.09 0.629678
0.77 0.09 0.471488
0.78 0.09 0.313959
0.79 0.09 0.156869
0.8 0.09 0
0 0.1 20.498
0.01 0.1 20.4883
0.02 0.1 20.4593
0.03 0.1 20.411
0.04 0.1 20.3435
0.05 0.1 20.2568
0.06 0.1 20.1511
0.07 0.1 20.0266
0.08 0.1 19.8835
0.09 0.1 19.7219
0.1 0.1 19.5423
0.11 0.1 19.3449
0.12 0.1 19.1303
0.13 0.1 18.8988
0.14 0.1 18.6511
0.15 0.1 18.3878
0.16 0.1 18.1096
0.17 0.1 17.8172
0.18 0.1 17.5115
0.19 0.1 17.1934
0.2 0.1 16.8639
0.21 0.1 16.5239
0.22 0.1 16.1746
0.23 0.1 15.8169
0.24 0.1 15.4521
0.25 0.1 15.0812
0.26 0.1 14.7052
0.27 0.1 14.3254
0.28 0.1 13.9428
0.29 0.1 13.5583
0.3 0.1 13.1731
0.31 0.1 12.788
0.32 0.1 12.4039
0.33 0.1 12.0216
0.34 0.1 11.642
0.35 0.1 11.2657
0.36 0.1 10.8934
0.37 0.1 10.5255
0.38 0.1 10.1626
0.39 0.1 9.80521
0.4 0.1 9.45359
0.41 0.1 9.10808
0.42 0.1 8.76894
0.43 0.1 8.43636
0.44 0.1 8.11051
0.45 0.1 7.79148
0.46 0.1 7.47934
0.47 0.1 7.17412
0.48 0.1 6.8758
0.49 0.1 6.58434
0.5 0.1 6.29968
0.51 0.1 6.02171
0.52 0.1 5.75033
0.53 0.1 5.48538
0.54 0.1 5.22673
0.55 0.1 4.97418
0.56 0.1 4.72757
0.57 0.1 4.48669
0.58 0.1 4.25135
0.59 0.1 4.02132
0.6 0.1 3.79638
0.61 0.1 3.57631
0.62 0.1 3.36088
0.63 0.1 3.14985
0.64 0.1 2.94299
0.65 0.1 2.74004
0.66 0.1 2.54078
0.67 0.1 2.34495
0.68 0.1 2.15231
0.69 0.1 1.96262
0.7 0.1 1.77562
0.71 0.1 1.59108
0.72 0.1 1.40874
0.73 0.1 1.22837
0.74 0.1 1.04971
0.75 0.1 0.872512
0.76 0.1 0.696543
0.77 0.1 0.521551
0.78 0.1 0.347293
0.79 0.1 0.173524
0.8 0.1 0
0 0.11 22.6216
0.01 0.11 22.6109
0.02 0.11 22.5788
0.03 0.11 22.5254
0.04 0.11 22.4507
0.05 0.11 22.3548
0.06 0.11 22.2379
0.07 0.11 22.1
0.08 0.11 21.9415
0.09 0.11 21.7626
0.1 0.11 21.5635
0.11 0.11 21.3447
0.12 0.11 21.1067
0.13 0.11 20.8499
0.14 0.11 20.575
0.15 0.11 20.2827
0.16 0.11 19.9738
0.17 0.11 19.649
0.18 0.11 19.3094
0.19 0.11 18.9559
0.2 0.11 18.5897
0.21 0.11 18.2119
0.22 0.11 17.8236
0.23 0.11 17.4262
0.24 0.11 17.0208
0.25 0.11 16.6087
0.26 0.11 16.1912
0.27 0.11 15.7694
0.28 0.11 15.3447
0.29 0.11 14.9181
0.3 0.11 14.4909
0.31 0.11 14.0639
0.32 0.11 13.6383
0.33 0.11 13.215
0.34 0.11 12.7948
0.35 0.11 12.3784
0.36 0.11 11.9667
0.37 0.11 11.5601
0.38 0.11 11.1592
0.39 0.11 10.7646
0.4 0.11 10.3766
0.41 0.11 9.99549
0.42 0.11 9.62159
0.43 0.11 9.25511
0.44 0.11 8.8962
0.45 0.11 8.54495
0.46 0.11 8.20143
0.47 0.11 7.86566
0.48 0.11 7.5376
0.49 0.11 7.21721
0.5 0.11 6.90439
0.51 0.11 6.59902
0.52 0.11 6.30098
0.53 0.11 6.01009
0.54 0.11 5.72618
0.55 0.11 5.44905
0.56 0.11 5.1785
0.57 0.11 4.91429
0.58 0.11 4.6562
0.59 0.11 4.40399
0.6 0.11 4.15741
0.61 0.11 3.9162
0.62 0.11 3.68011
0.63 0.11 3.44888
0.64 0.11 3.22224
0.65 0.11 2.99993
0.66 0.11 2.78167
0.67 0.11 2.56719
0.68 0.11 2.35623
0.69 0.11 2.14851
0.7 0.11 1.94375
0.71 0.11 1.7417
0.72 0.11 1.54207
0.73 0.11 1.34461
0.74 0.11 1.14902
0.75 0.11 0.955052
0.76 0.11 0.762429
0.77 0.11 0.570881
0.78 0.11 0.380139
0.79 0.11 0.189935
0.8 0.11 0
0 0.12 24.7665
0.01 0.12 24.7548
0.02 0.12 24.7196
0.03 0.12 24.661
0.04 0.12 24.5791
0.05 0.12 24.4738
0.06 0.12 24.3455
0.07 0.12 24.1941
0.08 0.12 24.02
0.09 0.12 23.8233
0.1 0.12 23.6044
0.11 0.12 23.3638
0.12 0.12 23.1018
0.13 0.12 22.8192
0.14 0.12 22.5164
0.15 0.12 22.1943
0.16 0.12 21.8537
0.17 0.12 21.4956
0.18 0.12 21.1211
0.19 0.12 20.7312
0.2 0.12 20.3271
0.21 0.12 19.9103
0.22 0.12 19.4819
0.23 0.12 19.0434
0.24 0.12 18.5962
0.25 0.12 18.1417
0.26 0.12 17.6813
0.27 0.12 17.2165
0.28 0.12 16.7485
0.29 0.12 16.2787
0.3 0.12 15.8083
0.31 0.12 15.3385
0.32 0.12 14.8705
0.33 0.12 14.4052
0.34 0.12 13.9436
0.35 0.12 13.4866
0.36 0.12 13.0348
0.37 0.12 12.5889
0.38 0.12 12.1496
0.39 0.12 11.7174
0.4 0.12 11.2926
0.41 0.12 10.8757
0.42 0.12 10.4668
0.43 0.12 10.0663
0.44 0.12 9.67421
0.45 0.12 9.2907
0.46 0.12 8.91578
0.47 0.12 8.54948
0.48 0.12 8.19175
0.49 0.12 7.8425
0.5 0.12 7.50164
0.51 0.12 7.16902
0.52 0.12 6.84448
0.53 0.12 6.52782
0.54 0.12 6.21886
0.55 0.12 5.91735
0.56 0.12 5.62307
0.57 0.12 5.33577
0.58 0.12 5.05518
0.59 0.12 4.78103
0.6 0.12 4.51306
0.61 0.12 4.25097
0.62 0.12 3.99449
0.63 0.12 3.74332
0.64 0.12 3.49718
0.65 0.12 3.25576
0.66 0.12 3.01877
0.67 0.12 2.78592
0.68 0.12 2.5569
0.69 0.12 2.33142
0.7 0.12 2.10919
0.71 0.12 1.88989
0.72 0.12 1.67325
0.73 0.12 1.45896
0.74 0.12 1.24672
0.75 0.12 1.03625
0.76 0.12 0.827239
0.77 0.12 0.619404
0.78 0.12 0.412448
0.79 0.12 0.206077
0.8 0.12 0
0 0.13 26.935
0.01 0.13 26.9222
0.02 0.13 26.8839
0.03 0.13 26.82
0.04 0.13 26.7307
0.05 0.13 26.616
0.06 0.13 26.4761
0.07 0.13 26.311
0.08 0.13 26.1209
0.09 0.13 25.9062
0.1 0.13 25.6672
0.11 0.13 25.4042
0.12 0.13 25.1177
0.13 0.13 24.8085
0.14 0.13 24.4771
0.15 0.13 24.1243
0.16 0.13 23.7512
0.17 0.13 23.3588
0.18 0.13 22.9481
0.19 0.13 22.5206
0.2 0.13 22.0774
0.21 0.13 21.6202
0.22 0.13 21.1503
0.23 0.13 20.6693
0.24 0.13 20.1789
0.25 0.13 19.6806
0.26 0.13 19.1759
0.27 0.13 18.6666
0.28 0.13 18.154
0.29 0.13 17.6398
0.3 0.13 17.1251
0.31 0.13 16.6114
0.32 0.13 16.1
0.33 0.13 15.5918
0.34 0.13 15.088
0.35 0.13 14.5894
0.36 0.13 14.0969
0.37 0.13 13.6112
0.38 0.13 13.133
0.39 0.13 12.6627
0.4 0.13 12.2009
0.41 0.13 11.7478
0.42 0.13 11.3038
0.43 0.13 10.869
0.44 0.13 10.4437
0.45 0.13 10.0278
0.46 0.13 9.62153
0.47 0.13 9.22474
0.48 0.13 8.8374
0.49 0.13 8.45941
0.5 0.13 8.09065
0.51 0.13 7.73093
0.52 0.13 7.38008
0.53 0.13 7.03787
0.54 0.13 6.70407
0.55 0.13 6.37843
0.56 0.13 6.06067
0.57 0.13 5.75053
0.58 0.13 5.4477
0.59 0.13 5.1519
0.6 0.13 4.86282
0.61 0.13 4.58014
0.62 0.13 4.30356
0.63 0.13 4.03274
0.64 0.13 3.76739
0.65 0.13 3.50716
0.66 0.13 3.25174
0.67 0.13 3.00081
0.68 0.13 2.75403
0.69 0.13 2.5111
0.7 0.13 2.27167
0.71 0.13 2.03544
0.72 0.13 1.80207
0.73 0.13 1.57125
0.74 0.13 1.34266
0.75 0.13 1.11597
0.76 0.13 0.890876
0.77 0.13 0.667047
0.78 0.13 0.44417
0.79 0.13 0.221926
0.8 0.13 0
0 0.14 29.1289
0.01 0.14 29.1151
0.02 0.14 29.0736
0.03 0.14 29.0045
0.04 0.14 28.9078
0.05 0.14 28.7835
0.06 0.14 28.6318
0.07 0.14 28.4528
0.08 0.14 28.2466
0.09 0.14 28.0135
0.1 0.14 27.7538
0.11 0.14 27.468
0.12 0.14 27.1565
0.13 0.14 26.8199
0.14 0.14 26.459
0.15 0.14 26.0748
0.16 0.14 25.6681
0.17 0.14 25.2401
0.18 0.14 24.7921
0.19 0.14 24.3255
0.2 0.14 23.8418
0.21 0.14 23.3427
0.22 0.14 22.8297
0.23 0.14 22.3047
0.24 0.14 21.7695
0.25 0.14 21.2257
0.26 0.14 20.6753
0.27 0.14 20.1199
0.28 0.14 19.5614
0.29 0.14 19.0012
0.3 0.14 18.441
0.31 0.14 17.8822
0.32 0.14 17.3261
0.33 0.14 16.774
0.34 0.14 16.227
0.35 0.14 15.6861
0.36 0.14 15.1522
0.37 0.14 14.6261
0.38 0.14 14.1084
0.39 0.14 13.5996
0.4 0.14 13.1003
0.41 0.14 12.6108
0.42 0.14 12.1314
0.43 0.14 11.6623
0.44 0.14 11.2036
0.45 0.14 10.7554
0.46 0.14 10.3178
0.47 0.14 9.89054
0.48 0.14 9.4737
0.49 0.14 9.06711
0.5 0.14 8.67061
0.51 0.14 8.28399
0.52 0.14 7.90704
0.53 0.14 7.53951
0.54 0.14 7.18113
0.55 0.14 6.83161
0.56 0.14 6.49066
0.57 0.14 6.15797
0.58 0.14 5.83321
0.59 0.14 5.51606
0.6 0.14 5.20617
0.61 0.14 4.90322
0.62 0.14 4.60685
0.63 0.14 4.31671
0.64 0.14 4.03246
0.65 0.14 3.75375
0.66 0.14 3.48023
0.67 0.14 3.21154
0.68 0.14 2.94733
0.69 0.14 2.68726
0.7 0.14 2.43097
0.71 0.14 2.17812
0.72 0.14 1.92835
0.73 0.14 1.68132
0.74 0.14 1.43669
0.75 0.14 1.19412
0.76 0.14 0.953245
0.77 0.14 0.71374
0.78 0.14 0.475258
0.79 0.14 0.237459
0.8 0.14 0
0 0.15 31.3506
0.01 0.15 31.3357
0.02 0.15 31.291
0.03 0.15 31.2166
0.04 0.15 31.1124
0.05 0.15 30.9784
0.06 0.15 30.8148
0.07 0.15 30.6217
0.08 0.15 30.3991
0.09 0.15 30.1473
0.1 0.15 29.8666
0.11 0.15 29.5574
0.12 0.15 29.2202
0.13 0.15 28.8557
0.14 0.15 28.4645
0.15 0.15 28.0476
0.16 0.15 27.6062
0.17 0.15 27.1414
0.18 0.15 26.6547
0.19 0.15 26.1476
0.2 0.15 25.6217
0.21 0.15 25.079
0.22 0.15 24.5212
0.23 0.15 23.9504
0.24 0.15 23.3685
0.25 0.15 22.7776
0.26 0.15 22.1796
0.27 0.15 21.5765
0.28 0.15 20.9703
0.29 0.15 20.3627
0.3 0.15 19.7554
0.31 0.15 19.1501
0.32 0.15 18.5482
0.33 0.15 17.9511
0.34 0.15 17.36
0.35 0.15 16.7759
0.36 0.15 16.1998
0.37 0.15 15.6326
0.38 0.15 15.0748
0.39 0.15 14.5271
0.4 0.15 13.99
0.41 0.15 13.4638
0.42 0.15 12.9488
0.43 0.15 12.4452
0.44 0.15 11.9531
0.45 0.15 11.4725
0.46 0.15 11.0035
0.47 0.15 10.546
0.48 0.15 10.0997
0.49 0.15 9.66472
0.5 0.15 9.24067
0.51 0.15 8.82738
0.52 0.15 8.42458
0.53 0.15 8.032
0.54 0.15 7.64932
0.55 0.15 7.27623
0.56 0.15 6.9124
0.57 0.15 6.55748
0.58 0.15 6.21111
0.59 0.15 5.87294
0.6 0.15 5.5426
0.61 0.15 5.21971
0.62 0.15 4.9039
0.63 0.15 4.59479
0.64 0.15 4.292
0.65 0.15 3.99516
0.66 0.15 3.70388
0.67 0.15 3.41778
0.68 0.15 3.1365
0.69 0.15 2.85964
0.7 0.15 2.58683
0.71 0.15 2.3177
0.72 0.15 2.05188
0.73 0.15 1.789
0.74 0.15 1.52867
0.75 0.15 1.27055
0.76 0.15 1.01425
0.77 0.15 0.759409
0.78 0.15 0.505665
0.79 0.15 0.25265
0.8 0.15 0
0 0.16 33.602
0.01 0.16 33.5861
0.02 0.16 33.5382
0.03 0.16 33.4584
0.04 0.16 33.3467
0.05 0.16 33.203
0.06 0.16 33.0275
0.07 0.16 32.82
0.08 0.16 32.5809
0.09 0.16 32.3101
0.1 0.16 32.008
0.11 0.16 31.6749
0.12 0.16 31.3114
0.13 0.16 30.918
0.14 0.16 30.4956
0.15 0.16 30.045
0.16 0.16 29.5676
0.17 0.16 29.0646
0.18 0.16 28.5376
0.19 0.16 27.9883
0.2 0.16 27.4185
0.21 0.16 26.8303
0.22 0.16 26.2258
0.23 0.16 25.6071
0.24 0.16 24.9766
0.25 0.16 24.3364
0.26 0.16 23.6889
0.27 0.16 23.0363
0.28 0.16 22.3806
0.29 0.16 21.7238
0.3 0.16 21.0679
0.31 0.16 20.4147
0.32 0.16 19.7656
0.33 0.16 19.1223
0.34 0.16 18.4859
0.35 0.16 17.8577
0.36 0.16 17.2386
0.37 0.16 16.6295
0.38 0.16 16.0311
0.39 0.16 15.444
0.4 0.16 14.8687
0.41 0.16 14.3056
0.42 0.16 13.7548
0.43 0.16 13.2166
0.44 0.16 12.691
0.45 0.16 12.1781
0.46 0.16 11.6778
0.47 0.16 11.19
0.48 0.16 10.7146
0.49 0.16 10.2513
0.5 0.16 9.79999
0.51 0.16 9.36028
0.52 0.16 8.93191
0.53 0.16 8.51457
0.54 0.16 8.10792
0.55 0.16 7.71159
0.56 0.16 7.32522
0.57 0.16 6.94843
0.58 0.16 6.58082
0.59 0.16 6.222
0.6 0.16 5.87157
0.61 0.16 5.52912
0.62 0.16 5.19425
0.63 0.16 4.86654
0.64 0.16 4.5456
0.65 0.16 4.231
0.66 0.16 3.92235
0.67 0.16 3.61922
0.68 0.16 3.32123
0.69 0.16 3.02796
0.7 0.16 2.73901
0.71 0.16 2.45399
0.72 0.16 2.17248
0.73 0.16 1.89411
0.74 0.16 1.61846
0.75 0.16 1.34515
0.76 0.16 1.07379
0.77 0.16 0.803983
0.78 0.16 0.535342
0.79 0.16 0.267477
0.8 0.16 0
0 0.17 35.8854
0.01 0.17 35.8683
0.02 0.17 35.8173
0.03 0.17 35.7322
0.04 0.17 35.6129
0.05 0.17 35.4595
0.06 0.17 35.2719
0.07 0.17 35.0501
0.08 0.17 34.7942
0.09 0.17 34.5042
0.1 0.17 34.1803
0.11 0.17 33.8229
0.12 0.17 33.4324
0.13 0.17 33.0094
0.14 0.17 32.5547
0.15 0.17 32.0694
0.16 0.17 31.5546
0.17 0.17 31.0119
0.18 0.17 30.4429
0.19 0.17 29.8495
0.2 0.17 29.2338
0.21 0.17 28.598
0.22 0.17 27.9444
0.23 0.17 27.2757
0.24 0.17 26.5943
0.25 0.17 25.9027
0.26 0.17 25.2035
0.27 0.17 24.4991
0.28 0.17 23.7919
0.29 0.17 23.0841
0.3 0.17 22.3778
0.31 0.17 21.675
0.32 0.17 20.9773
0.33 0.17 20.2864
0.34 0.17 19.6037
0.35 0.17 18.9303
0.36 0.17 18.2674
0.37 0.17 17.6157
0.38 0.17 16.9761
0.39 0.17 16.3492
0.4 0.17 15.7353
0.41 0.17 15.1349
0.42 0.17 14.5482
0.43 0.17 13.9753
0.44 0.17 13.4162
0.45 0.17 12.871
0.46 0.17 12.3396
0.47 0.17 11.8218
0.48 0.17 11.3173
0.49 0.17 10.8261
0.5 0.17 10.3477
0.51 0.17 9.88183
0.52 0.17 9.42822
0.53 0.17 8.98647
0.54 0.17 8.55619
0.55 0.17 8.137
0.56 0.17 7.72847
0.57 0.17 7.33019
0.58 0.17 6.94174
0.59 0.17 6.56267
0.6 0.17 6.19256
0.61 0.17 5.83096
0.62 0.17 5.47743
0.63 0.17 5.13154
0.64 0.17 4.79285
0.65 0.17 4.4609
0.66 0.17 4.13528
0.67 0.17 3.81554
0.68 0.17 3.50124
0.69 0.17 3.19196
0.7 0.17 2.88727
0.71 0.17 2.58675
0.72 0.17 2.28996
0.73 0.17 1.99648
0.74 0.17 1.70591
0.75 0.17 1.41781
0.76 0.17 1.13178
0.77 0.17 0.847392
0.78 0.17 0.564242
0.79 0.17 0.281915
0.8 0.17 0
0 0.18 38.2027
0.01 0.18 38.1847
0.02 0.18 38.1304
0.03 0.18 38.04
0.04 0.18 37.9133
0.05 0.18 37.7502
0.06 0.18 37.5506
0.07 0.18 37.3144
0.08 0.18 37.0416
0.09 0.18 36.7321
0.1 0.18 36.3862
0.11 0.18 36.004
0.12 0.18 35.5858
0.13 0.18 35.1324
0.14 0.18 34.6445
0.15 0.18 34.1232
0.16 0.18 33.5696
0.17 0.18 32.9855
0.18 0.18 32.3726
0.19 0.18 31.733
0.2 0.18 31.0691
0.21 0.18 30.3833
0.22 0.18 29.6783
0.23 0.18 28.957
0.24 0.18 28.2221
0.25 0.18 27.4766
0.26 0.18 26.7232
0.27 0.18 25.9647
0.28 0.18 25.2038
0.29 0.18 24.4429
0.3 0.18 23.6843
0.31 0.18 22.9301
0.32 0.18 22.1823
0.33 0.18 21.4424
0.34 0.18 20.7121
0.35 0.18 19.9925
0.36 0.18 19.2848
0.37 0.18 18.5899
0.38 0.18 17.9085
0.39 0.18 17.2412
0.4 0.18 16.5885
0.41 0.18 15.9506
0.42 0.18 15.3278
0.43 0.18 14.7201
0.44 0.18 14.1276
0.45 0.18 13.5502
0.46 0.18 12.9878
0.47 0.18 12.4401
0.48 0.18 11.9069
0.49 0.18 11.3879
0.5 0.18 10.8828
0.51 0.18 10.3912
0.52 0.18 9.91267
0.53 0.18 9.44688
0.54 0.18 8.99339
0.55 0.18 8.55173
0.56 0.18 8.12147
0.57 0.18 7.70213
0.58 0.18 7.29326
0.59 0.18 6.89439
0.6 0.18 6.50503
0.61 0.18 6.12472
0.62 0.18 5.75298
0.63 0.18 5.38935
0.64 0.18 5.03334
0.65 0.18 4.68449
0.66 0.18 4.34233
0.67 0.18 4.0064
0.68 0.18 3.67624
0.69 0.18 3.35138
0.7 0.18 3.03137
0.71 0.18 2.71577
0.72 0.18 2.40412
0.73 0.18 2.09597
0.74 0.18 1.79088
0.75 0.18 1.48841
0.76 0.18 1.18812
0.77 0.18 0.889565
0.78 0.18 0.592319
0.79 0.18 0.295942
0.8 0.18 0
0 0.19 40.5562
0.01 0.19 40.5371
0.02 0.19 40.4798
0.03 0.19 40.3842
0.04 0.19 40.2501
0.05 0.19 40.0774
0.06 0.19 39.8659
0.07 0.19 39.6153
0.08 0.19 39.3256
0.09 0.19 38.9966
0.1 0.19 38.6283
0.11 0.19 38.2209
0.12 0.19 37.7746
0.13 0.19 37.29
0.14 0.19 36.7678
0.15 0.19 36.2091
0.16 0.19 35.6152
0.17 0.19 34.9879
0.18 0.19 34.329
0.19 0.19 33.6409
0.2 0.19 32.9263
0.21 0.19 32.1878
0.22 0.19 31.4286
0.23 0.19 30.6518
0.24 0.19 29.8606
0.25 0.19 29.0583
0.26 0.19 28.248
0.27 0.19 27.4328
0.28 0.19 26.6157
0.29 0.19 25.7993
0.3 0.19 24.9863
0.31 0.19 24.1789
0.32 0.19 23.3792
0.33 0.19 22.5889
0.34 0.19 21.8097
0.35 0.19 21.0428
0.36 0.19 20.2895
0.37 0.19 19.5506
0.38 0.19 18.8268
0.39 0.19 18.1187
0.4 0.19 17.4268
0.41 0.19 16.7512
0.42 0.19 16.0922
0.43 0.19 15.4498
0.44 0.19 14.8239
0.45 0.19 14.2145
0.46 0.19 13.6212
0.47 0.19 13.0439
0.48 0.19 12.4822
0.49 0.19 11.9359
0.5 0.19 11.4044
0.51 0.19 10.8874
0.52 0.19 10.3844
0.53 0.19 9.89502
0.54 0.19 9.41874
0.55 0.19 8.95508
0.56 0.19 8.50354
0.57 0.19 8.06361
0.58 0.19 7.6348
0.59 0.19 7.21658
0.6 0.19 6.80845
0.61 0.19 6.40991
0.62 0.19 6.02043
0.63 0.19 5.63952
0.64 0.19 5.26667
0.65 0.19 4.90138
0.66 0.19 4.54316
0.67 0.19 4.1915
0.68 0.19 3.84592
0.69 0.19 3.50594
0.7 0.19 3.17107
0.71 0.19 2.84084
0.72 0.19 2.51477
0.73 0.19 2.19239
0.74 0.19 1.87323
0.75 0.19 1.55682
0.76 0.19 1.24271
0.77 0.19 0.930434
0.78 0.19 0.619527
0.79 0.19 0.309535
0.8 0.19 0
0 0.2 42.9479
0.01 0.2 42.9278
0.02 0.2 42.8675
0.03 0.2 42.7668
0.04 0.2 42.6255
0.05 0.2 42.4434
0.06 0.2 42.2201
0.07 0.2 41.9554
0.08 0.2 41.6489
0.09 0.2 41.3004
0.1 0.2 40.9096
0.11 0.2 40.4767
0.12 0.2 40.0017
0.13 0.2 39.4851
0.14 0.2 38.9276
0.15 0.2 38.3302
0.16 0.2 37.6943
0.17 0.2 37.0217
0.18 0.2 36.3146
0.19 0.2 35.5754
0.2 0.2 34.8072
0.21 0.2 34.0131
0.22 0.2 33.1965
0.23 0.2 32.361
0.24 0.2 31.5103
0.25 0.2 30.6479
0.26 0.2 29.7777
0.27 0.2 28.9028
0.28 0.2 28.0268
0.29 0.2 27.1525
0.3 0.2 26.2828
0.31 0.2 25.4201
0.32 0.2 24.5666
0.33 0.2 23.7244
0.34 0.2 22.8949
0.35 0.2 22.0797
0.36 0.2 21.2797
0.37 0.2 20.4961
0.38 0.2 19.7294
0.39 0.2 18.9801
0.4 0.2 18.2487
0.41 0.2 17.5353
0.42 0.2 16.8401
0.43 0.2 16.163
0.44 0.2 15.5038
0.45 0.2 14.8625
0.46 0.2 14.2387
0.47 0.2 13.6321
0.48 0.2 13.0423
0.49 0.2 12.4689
0.5 0.2 11.9115
0.51 0.2 11.3695
0.52 0.2 10.8426
0.53 0.2 10.33
0.54 0.2 9.83148
0.55 0.2 9.34631
0.56 0.2 8.87399
0.57 0.2 8.41398
0.58 0.2 7.96573
0.59 0.2 7.52869
0.6 0.2 7.1023
0.61 0.2 6.68603
0.62 0.2 6.27932
0.63 0.2 5.88164
0.64 0.2 5.49245
0.65 0.2 5.11121
0.66 0.2 4.73741
0.67 0.2 4.37052
0.68 0.2 4.01001
0.69 0.2 3.65539
0.7 0.2 3.30614
0.71 0.2 2.96175
0.72 0.2 2.62173
0.73 0.2 2.28559
0.74 0.2 1.95282
0.75 0.2 1.62295
0.76 0.2 1.29548
0.77 0.2 0.96993
0.78 0.2 0.645821
0.79 0.2 0.322671
0.8 0.2 0
0 0.21 45.3798
0.01 0.21 45.3588
0.02 0.21 45.2955
0.03 0.21 45.19
0.04 0.21 45.0418
0.05 0.21 44.8506
0.06 0.21 44.6159
0.07 0.21 44.3373
0.08 0.21 44.0142
0.09 0.21 43.6463
0.1 0.21 43.2332
0.11 0.21 42.7745
0.12 0.21 42.2704
0.13 0.21 41.7212
0.14 0.21 41.1273
0.15 0.21 40.4898
0.16 0.21 39.8101
0.17 0.21 39.0901
0.18 0.21 38.3321
0.19 0.21 37.539
0.2 0.21 36.7141
0.21 0.21 35.8609
0.22 0.21 34.9833
0.23 0.21 34.0854
0.24 0.21 33.1715
0.25 0.21 32.2456
0.26 0.21 31.3118
0.27 0.21 30.3741
0.28 0.21 29.4361
0.29 0.21 28.5011
0.3 0.21 27.5721